DF-ISE text

Info {
  version   = 1.0
  type      = xyplot
  datasets  = [
    "frequency"
    "v(l)" "v(r)" "a(l,l)" "c(l,l)" "a(l,r)"
    "c(l,r)" "a(r,l)" "c(r,l)" "a(r,r)" "c(r,r)" ]
  functions = [
    Frequency
    Voltage Voltage Admittance Capacitance Admittance
    Capacitance Admittance Capacitance Admittance Capacitance ]
}

Data {
      1.00000000000000E+09
     -2.00000000000000E+00   0.00000000000000E+00   1.61009866959780E-08   1.82654652817367E-16  -1.59973568403799E-08
     -1.82654652816984E-16  -1.59973568399198E-08  -1.82654652816984E-16   1.61837833496801E-08   1.82654652817074E-16
      1.00000000000000E+09
     -1.98000000000000E+00   0.00000000000000E+00   1.62706818559509E-08   1.83679976025231E-16  -1.62228344532275E-08
     -1.83679976025220E-16  -1.62228344504539E-08  -1.83679976025235E-16   1.64063468316499E-08   1.83679976025612E-16
      1.00000000000000E+09
     -1.94177777777778E+00   0.00000000000000E+00   1.67691329032840E-08   1.85692602158347E-16  -1.66634865827692E-08
     -1.85692602157316E-16  -1.66634865805989E-08  -1.85692602157309E-16   1.68713753765712E-08   1.85692602156872E-16
      1.00000000000000E+09
     -1.86873086419753E+00   0.00000000000000E+00   1.76926574131096E-08   1.89768415248280E-16  -1.75584665871104E-08
     -1.89768415246819E-16  -1.75584665811976E-08  -1.89768415246844E-16   1.77824424082251E-08   1.89768415245990E-16
      1.00000000000000E+09
     -1.74211621399177E+00   0.00000000000000E+00   1.94552386539382E-08   1.97772301640094E-16  -1.93773165760631E-08
     -1.97772301639229E-16  -1.93773165791978E-08  -1.97772301639235E-16   1.95898401863787E-08   1.97772301638826E-16
      1.00000000000000E+09
     -1.54211621399177E+00   0.00000000000000E+00   2.36768045494860E-08   2.14164069781222E-16  -2.35226802236361E-08
     -2.14164069780049E-16  -2.35226802152717E-08  -2.14164069780058E-16   2.36985291760537E-08   2.14164069779431E-16
      1.00000000000000E+09
     -1.34211621399177E+00   0.00000000000000E+00   3.09679234506312E-08   2.38593291987218E-16  -3.08553997765080E-08
     -2.38593291986031E-16  -3.08553997731038E-08  -2.38593291986048E-16   3.10124361470252E-08   2.38593291985403E-16
      1.00000000000000E+09
     -1.14211621399177E+00   0.00000000000000E+00   4.49360987313366E-08   2.77227882130465E-16  -4.48071193295030E-08
     -2.77227882129444E-16  -4.48071193297954E-08  -2.77227882129545E-16   4.49509869369564E-08   2.77227882128852E-16
      1.00000000000000E+09
     -9.42116213991770E-01   0.00000000000000E+00   6.87420356765047E-08   3.35554021460498E-16  -6.85766657825455E-08
     -3.35554021459554E-16  -6.85766657733415E-08  -3.35554021459608E-16   6.87561642797970E-08   3.35554021459087E-16
      1.00000000000000E+09
     -7.42116213991770E-01   0.00000000000000E+00   1.14323340624856E-07   4.34426398491101E-16  -1.14203351878978E-07
     -4.34426398490540E-16  -1.14203351875277E-07  -4.34426398490638E-16   1.14328505920683E-07   4.34426398490430E-16
      1.00000000000000E+09
     -5.42116213991770E-01   0.00000000000000E+00   2.26445809465891E-07   6.03638394026113E-16  -2.26325648286926E-07
     -6.03638394025811E-16  -2.26325648278486E-07  -6.03638394025908E-16   2.26543950086609E-07   6.03638394026052E-16
      1.00000000000000E+09
     -3.42116213991770E-01   0.00000000000000E+00   3.05467847281953E-07   7.28593461740698E-16  -3.05340741615600E-07
     -7.28593461739594E-16  -3.05340741618587E-07  -7.28593461739484E-16   3.05515398387657E-07   7.28593461738768E-16
      1.00000000000000E+09
     -1.42116213991770E-01   0.00000000000000E+00   3.68066219333298E-07   8.31385722141791E-16  -3.67922718068264E-07
     -8.31385722137154E-16  -3.67922718070463E-07  -8.31385722137142E-16   3.68108605143175E-07   8.31385722132796E-16
      1.00000000000000E+09
      0.00000000000000E+00   0.00000000000000E+00   4.15867386123657E-07   9.05833583282007E-16  -4.15764706322410E-07
     -9.05833583278587E-16  -4.15764706323199E-07  -9.05833583278484E-16   4.15978136143013E-07   9.05833583275527E-16
}
