DF-ISE text

Info {
  version   = 1.0
  type      = xyplot
  datasets  = [
    "frequency"
    "v(l)" "v(r)" "a(l,l)" "c(l,l)" "a(l,r)"
    "c(l,r)" "a(r,l)" "c(r,l)" "a(r,r)" "c(r,r)" ]
  functions = [
    Frequency
    Voltage Voltage Admittance Capacitance Admittance
    Capacitance Admittance Capacitance Admittance Capacitance ]
}

Data {
      1.00000000000000E+09
     -2.00000000000000E+00   0.00000000000000E+00   6.18984744667473E-09   1.81609253631279E-16  -6.18789515236630E-09
     -1.81609253631381E-16  -6.18789515267146E-09  -1.81609253631381E-16   6.17784572989957E-09   1.81609253631505E-16
      1.00000000000000E+09
     -1.98000000000000E+00   0.00000000000000E+00   6.21476240301811E-09   1.82048878422471E-16  -6.22162761184924E-09
     -1.82048878422742E-16  -6.22162761100284E-09  -1.82048878422743E-16   6.20898942532879E-09   1.82048878423275E-16
      1.00000000000000E+09
     -1.94177777777778E+00   0.00000000000000E+00   6.28829190832418E-09   1.82900245792957E-16  -6.28722111596130E-09
     -1.82900245793174E-16  -6.28722111724418E-09  -1.82900245793172E-16   6.28206316923834E-09   1.82900245793397E-16
      1.00000000000000E+09
     -1.86703209876543E+00   0.00000000000000E+00   6.42380496355768E-09   1.84609246094775E-16  -6.41995910767386E-09
     -1.84609246094835E-16  -6.41995910929124E-09  -1.84609246094833E-16   6.41301861050659E-09   1.84609246095070E-16
      1.00000000000000E+09
     -1.72086277091907E+00   0.00000000000000E+00   6.69802140380037E-09   1.88133134595191E-16  -6.69816752423275E-09
     -1.88133134595043E-16  -6.69816752314593E-09  -1.88133134595044E-16   6.68541200516317E-09   1.88133134595077E-16
      1.00000000000000E+09
     -1.52086277091907E+00   0.00000000000000E+00   7.12932360537875E-09   1.93397737681011E-16  -7.12513031772221E-09
     -1.93397737681042E-16  -7.12513031864062E-09  -1.93397737681041E-16   7.10410480810435E-09   1.93397737681235E-16
      1.00000000000000E+09
     -1.32086277091907E+00   0.00000000000000E+00   7.61440565174711E-09   1.99272493717701E-16  -7.61763886325089E-09
     -1.99272493717503E-16  -7.61763886353920E-09  -1.99272493717504E-16   7.60620194660965E-09   1.99272493717524E-16
      1.00000000000000E+09
     -1.12086277091907E+00   0.00000000000000E+00   8.17620753319721E-09   2.05899396178532E-16  -8.19360160358890E-09
     -2.05899396178862E-16  -8.19360160664183E-09  -2.05899396178861E-16   8.18167666995552E-09   2.05899396179319E-16
      1.00000000000000E+09
     -9.20862770919067E-01   0.00000000000000E+00   8.87169942429472E-09   2.13473295737147E-16  -8.87843615510279E-09
     -2.13473295737015E-16  -8.87843615729326E-09  -2.13473295737012E-16   8.86607836707091E-09   2.13473295736996E-16
      1.00000000000000E+09
     -7.20862770919067E-01   0.00000000000000E+00   9.70164092736718E-09   2.22271531467752E-16  -9.70966922764802E-09
     -2.22271531467974E-16  -9.70966923127578E-09  -2.22271531467967E-16   9.69343722222972E-09   2.22271531468314E-16
      1.00000000000000E+09
     -5.20862770919067E-01   0.00000000000000E+00   1.07384981044621E-08   2.32704544912894E-16  -1.07452322138868E-08
     -2.32704544913233E-16  -1.07452322144270E-08  -2.32704544913231E-16   1.07310540016522E-08   2.32704544913718E-16
      1.00000000000000E+09
     -3.20862770919067E-01   0.00000000000000E+00   1.20784366102463E-08   2.45413370536999E-16  -1.20800640217785E-08
     -2.45413370536681E-16  -1.20800640184066E-08  -2.45413370536685E-16   1.20547370176270E-08   2.45413370536465E-16
      1.00000000000000E+09
     -1.20862770919067E-01   0.00000000000000E+00   1.38838594223482E-08   2.61477496997681E-16  -1.38830816881189E-08
     -2.61477496997785E-16  -1.38830816867140E-08  -2.61477496997784E-16   1.38717057851076E-08   2.61477496997966E-16
      1.00000000000000E+09
      0.00000000000000E+00   0.00000000000000E+00   1.53328768223675E-08   2.73596942412767E-16  -1.53292651902795E-08
     -2.73596942412720E-16  -1.53292651874908E-08  -2.73596942412723E-16   1.53299903335228E-08   2.73596942412929E-16
}
