DF-ISE text

Info {
  version   = 1.0
  type      = xyplot
  datasets  = [
    "frequency"
    "v(l)" "v(r)" "a(l,l)" "c(l,l)" "a(l,r)"
    "c(l,r)" "a(r,l)" "c(r,l)" "a(r,r)" "c(r,r)" ]
  functions = [
    Frequency
    Voltage Voltage Admittance Capacitance Admittance
    Capacitance Admittance Capacitance Admittance Capacitance ]
}

Data {
      1.00000000000000E+09
     -2.00000000000000E+00   0.00000000000000E+00   6.47454639903749E-09   1.89791834091929E-16  -6.47521681104600E-09
     -1.89791834091643E-16  -6.47521681228795E-09  -1.89791834091642E-16   6.46300044365885E-09   1.89791834091883E-16
      1.00000000000000E+09
     -1.98000000000000E+00   0.00000000000000E+00   6.51313419727663E-09   1.90247970921743E-16  -6.51007117064021E-09
     -1.90247970921437E-16  -6.51007116919747E-09  -1.90247970921439E-16   6.50295552608757E-09   1.90247970921603E-16
      1.00000000000000E+09
     -1.94177777777778E+00   0.00000000000000E+00   6.56402755322195E-09   1.91131278117201E-16  -6.57783982957385E-09
     -1.91131278117140E-16  -6.57783983267121E-09  -1.91131278117137E-16   6.56676212160110E-09   1.91131278117475E-16
      1.00000000000000E+09
     -1.86703209876543E+00   0.00000000000000E+00   6.71139040476511E-09   1.92904196966348E-16  -6.71494937831002E-09
     -1.92904196966394E-16  -6.71494937904086E-09  -1.92904196966393E-16   6.69832524473138E-09   1.92904196966863E-16
      1.00000000000000E+09
     -1.72086277091907E+00   0.00000000000000E+00   6.99943160736906E-09   1.96558765372529E-16  -7.00216796744529E-09
     -1.96558765372772E-16  -7.00216796644816E-09  -1.96558765372772E-16   6.98970869757652E-09   1.96558765373518E-16
      1.00000000000000E+09
     -1.52086277091907E+00   0.00000000000000E+00   7.43513950244718E-09   2.02015574966657E-16  -7.44254930249873E-09
     -2.02015574966265E-16  -7.44254930366305E-09  -2.02015574966264E-16   7.44547009410175E-09   2.02015574966419E-16
      1.00000000000000E+09
     -1.32086277091907E+00   0.00000000000000E+00   7.95212484657231E-09   2.08100486659573E-16  -7.94993283518335E-09
     -2.08100486659041E-16  -7.94993283615190E-09  -2.08100486659039E-16   7.93070406093562E-09   2.08100486658982E-16
      1.00000000000000E+09
     -1.12086277091907E+00   0.00000000000000E+00   8.55008379881342E-09   2.14958477946049E-16  -8.54244477896501E-09
     -2.14958477945773E-16  -8.54244477784972E-09  -2.14958477945774E-16   8.52866301317673E-09   2.14958477945880E-16
      1.00000000000000E+09
     -9.20862770919067E-01   0.00000000000000E+00   9.24253728060076E-09   2.22790973278488E-16  -9.24602565799073E-09
     -2.22790973278605E-16  -9.24602565828135E-09  -2.22790973278604E-16   9.23327013220474E-09   2.22790973279273E-16
      1.00000000000000E+09
     -7.20862770919067E-01   0.00000000000000E+00   1.01031667177059E-08   2.31885016792050E-16  -1.00990003890263E-08
     -2.31885016791670E-16  -1.00990003866679E-08  -2.31885016791674E-16   1.00875189097585E-08   2.31885016791865E-16
      1.00000000000000E+09
     -5.20862770919067E-01   0.00000000000000E+00   1.11722310334886E-08   2.42667151392069E-16  -1.11607087977235E-08
     -2.42667151392257E-16  -1.11607087995823E-08  -2.42667151392255E-16   1.11547601799551E-08   2.42667151392913E-16
      1.00000000000000E+09
     -3.20862770919067E-01   0.00000000000000E+00   1.25303999951338E-08   2.55805453070847E-16  -1.25286076363125E-08
     -2.55805453070724E-16  -1.25286076387745E-08  -2.55805453070720E-16   1.25229558923239E-08   2.55805453071076E-16
      1.00000000000000E+09
     -1.20862770919067E-01   0.00000000000000E+00   1.43918814590084E-08   2.72427554649787E-16  -1.43764958702853E-08
     -2.72427554649275E-16  -1.43764958728302E-08  -2.72427554649272E-16   1.43570916724069E-08   2.72427554649172E-16
      1.00000000000000E+09
      0.00000000000000E+00   0.00000000000000E+00   1.58457603139239E-08   2.84980599566483E-16  -1.58592172390881E-08
     -2.84980599565825E-16  -1.58592172347861E-08  -2.84980599565835E-16   1.58439372683378E-08   2.84980599565704E-16
}
