DF-ISE text

Info {
  version   = 1.0
  type      = xyplot
  datasets  = [
    "frequency"
    "v(l)" "v(r)" "a(l,l)" "c(l,l)" "a(l,r)"
    "c(l,r)" "a(r,l)" "c(r,l)" "a(r,r)" "c(r,r)" ]
  functions = [
    Frequency
    Voltage Voltage Admittance Capacitance Admittance
    Capacitance Admittance Capacitance Admittance Capacitance ]
}

Data {
      1.00000000000000E+09
     -2.00000000000000E+00   0.00000000000000E+00   6.85449948327403E-09   1.98435488217909E-16  -6.85693204259459E-09
     -1.98435488217649E-16  -6.85693204333043E-09  -1.98435488217647E-16   6.84310544836090E-09   1.98435488217950E-16
      1.00000000000000E+09
     -1.98000000000000E+00   0.00000000000000E+00   6.90751972573647E-09   1.98909805749030E-16  -6.89343200313985E-09
     -1.98909805748399E-16  -6.89343200354257E-09  -1.98909805748399E-16   6.86179166561844E-09   1.98909805748197E-16
      1.00000000000000E+09
     -1.94177777777778E+00   0.00000000000000E+00   6.96904751426737E-09   1.99828466933526E-16  -6.96440905994016E-09
     -1.99828466932556E-16  -6.96440906229636E-09  -1.99828466932552E-16   6.94367679652747E-09   1.99828466932234E-16
      1.00000000000000E+09
     -1.86703209876543E+00   0.00000000000000E+00   7.11549884301748E-09   2.01672970657335E-16  -7.10804880992184E-09
     -2.01672970656894E-16  -7.10804880777644E-09  -2.01672970656897E-16   7.09240693226020E-09   2.01672970656865E-16
      1.00000000000000E+09
     -1.72086277091907E+00   0.00000000000000E+00   7.42587235405117E-09   2.05477738945321E-16  -7.40911486094161E-09
     -2.05477738944743E-16  -7.40911485863355E-09  -2.05477738944745E-16   7.39928627258720E-09   2.05477738944774E-16
      1.00000000000000E+09
     -1.52086277091907E+00   0.00000000000000E+00   7.87859534126624E-09   2.11163683599462E-16  -7.87102513464730E-09
     -2.11163683598661E-16  -7.87102513299322E-09  -2.11163683598664E-16   7.84623628211294E-09   2.11163683598437E-16
      1.00000000000000E+09
     -1.32086277091907E+00   0.00000000000000E+00   8.40469591332187E-09   2.17509069132461E-16  -8.40349865322169E-09
     -2.17509069131851E-16  -8.40349865195450E-09  -2.17509069131852E-16   8.37826175232340E-09   2.17509069131867E-16
      1.00000000000000E+09
     -1.12086277091907E+00   0.00000000000000E+00   9.03212743587161E-09   2.24667583044793E-16  -9.02578047110467E-09
     -2.24667583044239E-16  -9.02578047369681E-09  -2.24667583044235E-16   8.99597036508060E-09   2.24667583044328E-16
      1.00000000000000E+09
     -9.20862770919067E-01   0.00000000000000E+00   9.76013030658792E-09   2.32847083667421E-16  -9.76487903115823E-09
     -2.32847083666484E-16  -9.76487903023452E-09  -2.32847083666483E-16   9.74326713491648E-09   2.32847083666128E-16
      1.00000000000000E+09
     -7.20862770919067E-01   0.00000000000000E+00   1.06528149619153E-08   2.42343079491279E-16  -1.06605856404527E-08
     -2.42343079490553E-16  -1.06605856364562E-08  -2.42343079490558E-16   1.06394459609506E-08   2.42343079490453E-16
      1.00000000000000E+09
     -5.20862770919067E-01   0.00000000000000E+00   1.17750514406260E-08   2.53591015721331E-16  -1.17740196272834E-08
     -2.53591015720709E-16  -1.17740196258875E-08  -2.53591015720710E-16   1.17633535647818E-08   2.53591015720661E-16
      1.00000000000000E+09
     -3.20862770919067E-01   0.00000000000000E+00   1.31959635545262E-08   2.67268383751294E-16  -1.32048096758720E-08
     -2.67268383750355E-16  -1.32048096748756E-08  -2.67268383750354E-16   1.31825945535614E-08   2.67268383749881E-16
      1.00000000000000E+09
     -1.20862770919067E-01   0.00000000000000E+00   1.51186689660006E-08   2.84522449276178E-16  -1.51304957588098E-08
     -2.84522449275437E-16  -1.51304957590169E-08  -2.84522449275437E-16   1.50967924189674E-08   2.84522449275167E-16
      1.00000000000000E+09
      0.00000000000000E+00   0.00000000000000E+00   1.66746383737378E-08   2.97519197897721E-16  -1.66703062597374E-08
     -2.97519197897172E-16  -1.66703062571180E-08  -2.97519197897175E-16   1.66445581215671E-08   2.97519197897159E-16
}
