DF-ISE text

Info {
  version   = 1.0
  type      = xyplot
  datasets  = [
    "frequency"
    "v(l)" "v(r)" "a(l,l)" "c(l,l)" "a(l,r)"
    "c(l,r)" "a(r,l)" "c(r,l)" "a(r,r)" "c(r,r)" ]
  functions = [
    Frequency
    Voltage Voltage Admittance Capacitance Admittance
    Capacitance Admittance Capacitance Admittance Capacitance ]
}

Data {
      1.00000000000000E+09
     -2.00000000000000E+00   0.00000000000000E+00   7.15985961894594E-09   2.05158539458206E-16  -7.14933203932954E-09
     -2.05158539458304E-16  -7.14933203893177E-09  -2.05158539458305E-16   7.12263910489638E-09   2.05158539458674E-16
      1.00000000000000E+09
     -1.98000000000000E+00   0.00000000000000E+00   7.18021696132407E-09   2.05646971014712E-16  -7.18709633202118E-09
     -2.05646971014118E-16  -7.18709633297104E-09  -2.05646971014117E-16   7.15560584591170E-09   2.05646971014123E-16
      1.00000000000000E+09
     -1.94177777777778E+00   0.00000000000000E+00   7.25860792152641E-09   2.06593039466359E-16  -7.26053503523909E-09
     -2.06593039466198E-16  -7.26053503713378E-09  -2.06593039466197E-16   7.23308528332099E-09   2.06593039466221E-16
      1.00000000000000E+09
     -1.87042962962963E+00   0.00000000000000E+00   7.40217276143186E-09   2.08404982360835E-16  -7.40225976724659E-09
     -2.08404982360762E-16  -7.40225976481837E-09  -2.08404982360765E-16   7.37558667996788E-09   2.08404982361112E-16
      1.00000000000000E+09
     -1.73090436213992E+00   0.00000000000000E+00   7.69553118032860E-09   2.12133895921102E-16  -7.69836144648124E-09
     -2.12133895921348E-16  -7.69836144711533E-09  -2.12133895921348E-16   7.67441423562293E-09   2.12133895921865E-16
      1.00000000000000E+09
     -1.53090436213992E+00   0.00000000000000E+00   8.16101548664637E-09   2.17962795482693E-16  -8.17319325025068E-09
     -2.17962795482454E-16  -8.17319324996159E-09  -2.17962795482454E-16   8.14719072428511E-09   2.17962795482479E-16
      1.00000000000000E+09
     -1.33090436213992E+00   0.00000000000000E+00   8.70580227595954E-09   2.24467418065132E-16  -8.72034741418908E-09
     -2.24467418065540E-16  -8.72034741456407E-09  -2.24467418065541E-16   8.70200426432183E-09   2.24467418066221E-16
      1.00000000000000E+09
     -1.13090436213992E+00   0.00000000000000E+00   9.35981987997325E-09   2.31801602236602E-16  -9.35919731761064E-09
     -2.31801602236864E-16  -9.35919731513340E-09  -2.31801602236867E-16   9.33672796921597E-09   2.31801602237444E-16
      1.00000000000000E+09
     -9.30904362139918E-01   0.00000000000000E+00   1.01261067079977E-08   2.40175563582907E-16  -1.01170829092557E-08
     -2.40175563582542E-16  -1.01170829089765E-08  -2.40175563582542E-16   1.00902534781377E-08   2.40175563582886E-16
      1.00000000000000E+09
     -7.30904362139918E-01   0.00000000000000E+00   1.10285142731176E-08   2.49885695812886E-16  -1.10339996749048E-08
     -2.49885695813126E-16  -1.10339996776424E-08  -2.49885695813124E-16   1.10096761353946E-08   2.49885695813883E-16
      1.00000000000000E+09
     -5.30904362139918E-01   0.00000000000000E+00   1.21744503444476E-08   2.61368589860956E-16  -1.21712442774992E-08
     -2.61368589861140E-16  -1.21712442767189E-08  -2.61368589861142E-16   1.21505988313628E-08   2.61368589861750E-16
      1.00000000000000E+09
     -3.30904362139918E-01   0.00000000000000E+00   1.36211889374842E-08   2.75306316057433E-16  -1.36288962544060E-08
     -2.75306316057306E-16  -1.36288962562407E-08  -2.75306316057304E-16   1.36069084137264E-08   2.75306316057478E-16
      1.00000000000000E+09
     -1.30904362139918E-01   0.00000000000000E+00   1.55773168513705E-08   2.92849193809646E-16  -1.55844894386238E-08
     -2.92849193809995E-16  -1.55844894354319E-08  -2.92849193809997E-16   1.55701765894916E-08   2.92849193810556E-16
      1.00000000000000E+09
      0.00000000000000E+00   0.00000000000000E+00   1.72952334753396E-08   3.07246468047638E-16  -1.72904807924013E-08
     -3.07246468047766E-16  -1.72904807903203E-08  -3.07246468047770E-16   1.72646974617724E-08   3.07246468048143E-16
}
