DF-ISE text

Info {
  version   = 1.0
  type      = xyplot
  datasets  = [
    "frequency"
    "v(l)" "v(r)" "a(l,l)" "c(l,l)" "a(l,r)"
    "c(l,r)" "a(r,l)" "c(r,l)" "a(r,r)" "c(r,r)" ]
  functions = [
    Frequency
    Voltage Voltage Admittance Capacitance Admittance
    Capacitance Admittance Capacitance Admittance Capacitance ]
}

Data {
      1.00000000000000E+09
     -2.00000000000000E+00   0.00000000000000E+00   7.47950027837564E-09   2.13002862281854E-16  -7.48676468235986E-09
     -2.13002862281798E-16  -7.48676468264517E-09  -2.13002862281798E-16   7.47084081184166E-09   2.13002862281937E-16
      1.00000000000000E+09
     -1.98000000000000E+00   0.00000000000000E+00   7.52492449756265E-09   2.13500196410544E-16  -7.52535813423447E-09
     -2.13500196410049E-16  -7.52535813373865E-09  -2.13500196410050E-16   7.50000954121927E-09   2.13500196409831E-16
      1.00000000000000E+09
     -1.94177777777778E+00   0.00000000000000E+00   7.60058088938584E-09   2.14463474351658E-16  -7.60039970591625E-09
     -2.14463474352053E-16  -7.60039970535943E-09  -2.14463474352055E-16   7.57779281955958E-09   2.14463474352605E-16
      1.00000000000000E+09
     -1.86703209876543E+00   0.00000000000000E+00   7.76070506003171E-09   2.16397615304271E-16  -7.75223032298818E-09
     -2.16397615304633E-16  -7.75223032142226E-09  -2.16397615304636E-16   7.73806891067096E-09   2.16397615305267E-16
      1.00000000000000E+09
     -1.72086277091907E+00   0.00000000000000E+00   8.07654770782370E-09   2.20386682074565E-16  -8.07025008973078E-09
     -2.20386682074366E-16  -8.07025008833982E-09  -2.20386682074369E-16   8.05087314915278E-09   2.20386682074368E-16
      1.00000000000000E+09
     -1.52086277091907E+00   0.00000000000000E+00   8.56512392489875E-09   2.26346121241619E-16  -8.55760931264758E-09
     -2.26346121241478E-16  -8.55760931667360E-09  -2.26346121241474E-16   8.53094182015936E-09   2.26346121241644E-16
      1.00000000000000E+09
     -1.32086277091907E+00   0.00000000000000E+00   9.12768540867640E-09   2.32999130923420E-16  -9.11908801751418E-09
     -2.32999130923370E-16  -9.11908801667049E-09  -2.32999130923372E-16   9.11142991886700E-09   2.32999130923501E-16
      1.00000000000000E+09
     -1.12086277091907E+00   0.00000000000000E+00   9.78048764896604E-09   2.40508915484805E-16  -9.77498083053349E-09
     -2.40508915484573E-16  -9.77498083154001E-09  -2.40508915484573E-16   9.75055931726089E-09   2.40508915484480E-16
      1.00000000000000E+09
     -9.20862770919067E-01   0.00000000000000E+00   1.05601434779552E-08   2.49090020206700E-16  -1.05531934352893E-08
     -2.49090020206823E-16  -1.05531934402695E-08  -2.49090020206816E-16   1.05277844188019E-08   2.49090020207067E-16
      1.00000000000000E+09
     -7.20862770919067E-01   0.00000000000000E+00   1.15005311594523E-08   2.59053679191638E-16  -1.14953731852011E-08
     -2.59053679191390E-16  -1.14953731852893E-08  -2.59053679191391E-16   1.14675644184370E-08   2.59053679191243E-16
      1.00000000000000E+09
     -5.20862770919067E-01   0.00000000000000E+00   1.26618111977986E-08   2.70856500968375E-16  -1.26652416520853E-08
     -2.70856500968032E-16  -1.26652416552810E-08  -2.70856500968027E-16   1.26589247089539E-08   2.70856500967849E-16
      1.00000000000000E+09
     -3.20862770919067E-01   0.00000000000000E+00   1.41674949314525E-08   2.85207694377044E-16  -1.41665014929841E-08
     -2.85207694377067E-16  -1.41665014977470E-08  -2.85207694377061E-16   1.41424280546436E-08   2.85207694377282E-16
      1.00000000000000E+09
     -1.20862770919067E-01   0.00000000000000E+00   1.61933543390071E-08   3.03317538030626E-16  -1.61848036339552E-08
     -3.03317538030306E-16  -1.61848036365025E-08  -3.03317538030303E-16   1.61597799161298E-08   3.03317538030060E-16
      1.00000000000000E+09
      0.00000000000000E+00   0.00000000000000E+00   1.77950518068623E-08   3.16958985910922E-16  -1.77967053064422E-08
     -3.16958985910652E-16  -1.77967053118309E-08  -3.16958985910644E-16   1.77892788291730E-08   3.16958985910427E-16
}
