DF-ISE text

Info {
  version   = 1.0
  type      = xyplot
  datasets  = [
    "frequency"
    "v(l)" "v(r)" "a(l,l)" "c(l,l)" "a(l,r)"
    "c(l,r)" "a(r,l)" "c(r,l)" "a(r,r)" "c(r,r)" ]
  functions = [
    Frequency
    Voltage Voltage Admittance Capacitance Admittance
    Capacitance Admittance Capacitance Admittance Capacitance ]
}

Data {
      1.00000000000000E+09
     -2.00000000000000E+00   0.00000000000000E+00   7.71968653434444E-09   2.18796033672384E-16  -7.73168645638789E-09
     -2.18796033672005E-16  -7.73168645728702E-09  -2.18796033672004E-16   7.72439606877520E-09   2.18796033672185E-16
      1.00000000000000E+09
     -1.98000000000000E+00   0.00000000000000E+00   7.77331445866891E-09   2.19301285273773E-16  -7.77097351683939E-09
     -2.19301285273578E-16  -7.77097351731725E-09  -2.19301285273577E-16   7.76966836749671E-09   2.19301285273808E-16
      1.00000000000000E+09
     -1.94177777777778E+00   0.00000000000000E+00   7.85307270306082E-09   2.20279574872880E-16  -7.84733313267890E-09
     -2.20279574872206E-16  -7.84733313091917E-09  -2.20279574872208E-16   7.84532475931989E-09   2.20279574871946E-16
      1.00000000000000E+09
     -1.86703209876543E+00   0.00000000000000E+00   7.98888959922534E-09   2.22242494529801E-16  -8.00170261260152E-09
     -2.22242494529572E-16  -8.00170261239018E-09  -2.22242494529573E-16   8.01000654393101E-09   2.22242494529716E-16
      1.00000000000000E+09
     -1.72418480109739E+00   0.00000000000000E+00   8.31977237310266E-09   2.26190895775413E-16  -8.31689486875177E-09
     -2.26190895775077E-16  -8.31689487147447E-09  -2.26190895775074E-16   8.31658204332699E-09   2.26190895775099E-16
      1.00000000000000E+09
     -1.52418480109739E+00   0.00000000000000E+00   8.81685613624619E-09   2.32216821471624E-16  -8.81001994674264E-09
     -2.32216821471219E-16  -8.81001994713546E-09  -2.32216821471218E-16   8.81396964740153E-09   2.32216821471226E-16
      1.00000000000000E+09
     -1.32418480109739E+00   0.00000000000000E+00   9.37227735814494E-09   2.38942025698619E-16  -9.37766840423783E-09
     -2.38942025698254E-16  -9.37766840498320E-09  -2.38942025698253E-16   9.36513709626605E-09   2.38942025698245E-16
      1.00000000000000E+09
     -1.12418480109739E+00   0.00000000000000E+00   1.00367774742787E-08   2.46522398405986E-16  -1.00394059243130E-08
     -2.46522398405319E-16  -1.00394059262569E-08  -2.46522398405316E-16   1.00364736333477E-08   2.46522398405092E-16
      1.00000000000000E+09
     -9.24184801097394E-01   0.00000000000000E+00   1.08247889288709E-08   2.55176087865622E-16  -1.08233107851612E-08
     -2.55176087865246E-16  -1.08233107865015E-08  -2.55176087865245E-16   1.08070142344064E-08   2.55176087865261E-16
      1.00000000000000E+09
     -7.24184801097394E-01   0.00000000000000E+00   1.17748995201605E-08   2.65225389954661E-16  -1.17718526920181E-08
     -2.65225389954302E-16  -1.17718526948173E-08  -2.65225389954298E-16   1.17671515764195E-08   2.65225389954380E-16
      1.00000000000000E+09
     -5.24184801097394E-01   0.00000000000000E+00   1.29568407418159E-08   2.77125723497223E-16  -1.29483206130507E-08
     -2.77125723496836E-16  -1.29483206135741E-08  -2.77125723496834E-16   1.29536504120402E-08   2.77125723496817E-16
      1.00000000000000E+09
     -3.24184801097394E-01   0.00000000000000E+00   1.44564476568494E-08   2.91603984927955E-16  -1.44576942150248E-08
     -2.91603984927821E-16  -1.44576942178405E-08  -2.91603984927817E-16   1.44517381224187E-08   2.91603984928026E-16
      1.00000000000000E+09
     -1.24184801097394E-01   0.00000000000000E+00   1.64798763369560E-08   3.09889263735658E-16  -1.64867558281950E-08
     -3.09889263735161E-16  -1.64867558296428E-08  -3.09889263735159E-16   1.64756225639218E-08   3.09889263735017E-16
      1.00000000000000E+09
      0.00000000000000E+00   0.00000000000000E+00   1.81620916515306E-08   3.24084748759301E-16  -1.81567953325940E-08
     -3.24084748759364E-16  -1.81567953392336E-08  -3.24084748759355E-16   1.81522168212726E-08   3.24084748759941E-16
}
