DF-ISE text

Info {
  version   = 1.0
  type      = xyplot
  datasets  = [
    "frequency"
    "v(l)" "v(r)" "a(l,l)" "c(l,l)" "a(l,r)"
    "c(l,r)" "a(r,l)" "c(r,l)" "a(r,r)" "c(r,r)" ]
  functions = [
    Frequency
    Voltage Voltage Admittance Capacitance Admittance
    Capacitance Admittance Capacitance Admittance Capacitance ]
}

Data {
      1.00000000000000E+09
     -2.00000000000000E+00   0.00000000000000E+00   1.30754906253780E-08   1.63092155256304E-16  -1.29842925459112E-08
     -1.63092155255731E-16  -1.29842925457122E-08  -1.63092155255730E-16   1.30979748542732E-08   1.63092155255511E-16
      1.00000000000000E+09
     -1.98000000000000E+00   0.00000000000000E+00   1.35393038065752E-08   1.64173764916781E-16  -1.34557178232343E-08
     -1.64173764917085E-16  -1.34557178297576E-08  -1.64173764917088E-16   1.35440133410059E-08   1.64173764917630E-16
      1.00000000000000E+09
     -1.94177777777778E+00   0.00000000000000E+00   1.44028197325250E-08   1.66249700467146E-16  -1.43452856842049E-08
     -1.66249700466938E-16  -1.43452856819313E-08  -1.66249700466922E-16   1.44634359982628E-08   1.66249700467243E-16
      1.00000000000000E+09
     -1.86873086419753E+00   0.00000000000000E+00   1.59882617105708E-08   1.70181946217843E-16  -1.59141670459445E-08
     -1.70181946217403E-16  -1.59141670445854E-08  -1.70181946217397E-16   1.60265456678789E-08   1.70181946217574E-16
      1.00000000000000E+09
     -1.73237662551440E+00   0.00000000000000E+00   1.83653612343809E-08   1.77369855074059E-16  -1.82756573419241E-08
     -1.77369855073280E-16  -1.82756573457714E-08  -1.77369855073273E-16   1.84199006814984E-08   1.77369855072946E-16
      1.00000000000000E+09
     -1.55663116232282E+00   0.00000000000000E+00   2.09566686145579E-08   1.87095200995544E-16  -2.08491088670477E-08
     -1.87095200994519E-16  -2.08491088642274E-08  -1.87095200994556E-16   2.09872046281251E-08   1.87095200993797E-16
      1.00000000000000E+09
     -1.35663116232282E+00   0.00000000000000E+00   2.45252803493505E-08   2.00578925551903E-16  -2.44050308110322E-08
     -2.00578925551188E-16  -2.44050308159695E-08  -2.00578925551197E-16   2.45237611446954E-08   2.00578925550975E-16
      1.00000000000000E+09
     -1.15663116232282E+00   0.00000000000000E+00   3.02850409581709E-08   2.19486376431056E-16  -3.02442394464879E-08
     -2.19486376430673E-16  -3.02442394453552E-08  -2.19486376430655E-16   3.03734586690968E-08   2.19486376430527E-16
      1.00000000000000E+09
     -9.56631162322817E-01   0.00000000000000E+00   4.16433745619073E-08   2.49111449159504E-16  -4.15471205799640E-08
     -2.49111449158802E-16  -4.15471205800202E-08  -2.49111449158812E-16   4.17094599644034E-08   2.49111449158500E-16
      1.00000000000000E+09
     -7.56631162322817E-01   0.00000000000000E+00   6.36194295000266E-08   2.96308590211619E-16  -6.35414268211065E-08
     -2.96308590209933E-16  -6.35414268215808E-08  -2.96308590209929E-16   6.37079991314180E-08   2.96308590208707E-16
      1.00000000000000E+09
     -5.56631162322817E-01   0.00000000000000E+00   9.66189853359018E-08   3.61663193005240E-16  -9.65441144454827E-08
     -3.61663193005082E-16  -9.65441144509716E-08  -3.61663193005074E-16   9.67004147054143E-08   3.61663193005279E-16
      1.00000000000000E+09
     -3.56631162322817E-01   0.00000000000000E+00   1.49115557953730E-07   4.64891677577798E-16  -1.49059305192191E-07
     -4.64891677575019E-16  -1.49059305191959E-07  -4.64891677574998E-16   1.49183922163209E-07   4.64891677572581E-16
      1.00000000000000E+09
     -1.56631162322817E-01   0.00000000000000E+00   3.38770332526052E-07   7.03023274024874E-16  -3.38684054345233E-07
     -7.03023274023513E-16  -3.38684054341982E-07  -7.03023274023520E-16   3.38889742011942E-07   7.03023274022423E-16
      1.00000000000000E+09
      0.00000000000000E+00   0.00000000000000E+00   4.79661979920415E-07   8.70764504866457E-16  -4.79573130525614E-07
     -8.70764504862727E-16  -4.79573130509983E-07  -8.70764504862847E-16   4.79745536176445E-07   8.70764504859337E-16
}
