DF-ISE text

Info {
  version   = 1.0
  type      = xyplot
  datasets  = [
    "frequency"
    "v(l)" "v(r)" "a(l,l)" "c(l,l)" "a(l,r)"
    "c(l,r)" "a(r,l)" "c(r,l)" "a(r,r)" "c(r,r)" ]
  functions = [
    Frequency
    Voltage Voltage Admittance Capacitance Admittance
    Capacitance Admittance Capacitance Admittance Capacitance ]
}

Data {
      1.00000000000000E+09
     -2.00000000000000E+00   0.00000000000000E+00   1.68760849110019E-08   1.92696726706506E-16  -1.67930184087517E-08
     -1.92696726705405E-16  -1.67930184046865E-08  -1.92696726705419E-16   1.68624120691062E-08   1.92696726704626E-16
      1.00000000000000E+09
     -1.98000000000000E+00   0.00000000000000E+00   1.71932948429835E-08   1.94053609734252E-16  -1.70801029802252E-08
     -1.94053609733974E-16  -1.70801029815302E-08  -1.94053609733967E-16   1.71349573842283E-08   1.94053609733895E-16
      1.00000000000000E+09
     -1.94266666666667E+00   0.00000000000000E+00   1.78406279465148E-08   1.96701430283219E-16  -1.76502147628430E-08
     -1.96701430283157E-16  -1.76502147621392E-08  -1.96701430283177E-16   1.77313971318143E-08   1.96701430283368E-16
      1.00000000000000E+09
     -1.87795555555556E+00   0.00000000000000E+00   1.88897906813159E-08   2.01687263586517E-16  -1.87595191305479E-08
     -2.01687263586177E-16  -1.87595191308435E-08  -2.01687263586191E-16   1.88808273738509E-08   2.01687263585953E-16
      1.00000000000000E+09
     -1.76291358024691E+00   0.00000000000000E+00   2.13887304184638E-08   2.12064616238992E-16  -2.12172297956252E-08
     -2.12064616238086E-16  -2.12172297960883E-08  -2.12064616238117E-16   2.13083644922098E-08   2.12064616237533E-16
      1.00000000000000E+09
     -1.56350748971193E+00   0.00000000000000E+00   2.78901667398963E-08   2.36535187783570E-16  -2.77457941531359E-08
     -2.36535187783315E-16  -2.77457941545235E-08  -2.36535187783271E-16   2.78719362840353E-08   2.36535187783210E-16
      1.00000000000000E+09
     -1.36350748971193E+00   0.00000000000000E+00   3.91432194610354E-08   2.73326778668461E-16  -3.90215298183573E-08
     -2.73326778667793E-16  -3.90215298155792E-08  -2.73326778667775E-16   3.91496001205867E-08   2.73326778667403E-16
      1.00000000000000E+09
     -1.16350748971193E+00   0.00000000000000E+00   5.76740220823549E-08   3.28450341922378E-16  -5.75257500656773E-08
     -3.28450341921971E-16  -5.75257500674085E-08  -3.28450341922023E-16   5.76301170678230E-08   3.28450341921985E-16
      1.00000000000000E+09
     -9.63507489711934E-01   0.00000000000000E+00   9.85538443846169E-08   4.26839592637824E-16  -9.84980286275474E-08
     -4.26839592637615E-16  -9.84980286269980E-08  -4.26839592637614E-16   9.86061050247518E-08   4.26839592637699E-16
      1.00000000000000E+09
     -7.63507489711934E-01   0.00000000000000E+00   1.72195618914699E-07   5.59313564088936E-16  -1.72186901835123E-07
     -5.59313564090548E-16  -1.72186901849446E-07  -5.59313564090491E-16   1.72307888138710E-07   5.59313564092116E-16
      1.00000000000000E+09
     -5.63507489711934E-01   0.00000000000000E+00   2.27473551415055E-07   6.60759583576334E-16  -2.27382567398073E-07
     -6.60759583575229E-16  -2.27382567400192E-07  -6.60759583575117E-16   2.27472943733193E-07   6.60759583574323E-16
      1.00000000000000E+09
     -3.63507489711934E-01   0.00000000000000E+00   2.75744760125698E-07   7.49728169652413E-16  -2.75624141563526E-07
     -7.49728169653691E-16  -2.75624141571817E-07  -7.49728169653577E-16   2.75666065324565E-07   7.49728169655064E-16
      1.00000000000000E+09
     -1.63507489711934E-01   0.00000000000000E+00   3.30276003538080E-07   8.43311411984697E-16  -3.30184295193906E-07
     -8.43311411980418E-16  -3.30184295191604E-07  -8.43311411980435E-16   3.30250177058944E-07   8.43311411976395E-16
      1.00000000000000E+09
      0.00000000000000E+00   0.00000000000000E+00   3.84914958560508E-07   9.29647364363964E-16  -3.84891041682172E-07
     -9.29647364364597E-16  -3.84891041694825E-07  -9.29647364364424E-16   3.84999122498400E-07   9.29647364365148E-16
}
