DF-ISE text

Info {
  version   = 1.0
  type      = xyplot
  datasets  = [
    "frequency"
    "v(l)" "v(r)" "a(l,l)" "c(l,l)" "a(l,r)"
    "c(l,r)" "a(r,l)" "c(r,l)" "a(r,r)" "c(r,r)" ]
  functions = [
    Frequency
    Voltage Voltage Admittance Capacitance Admittance
    Capacitance Admittance Capacitance Admittance Capacitance ]
}

Data {
      1.00000000000000E+09
     -2.00000000000000E+00   0.00000000000000E+00   1.68917327189493E-08   1.99575422379305E-16  -1.68942424496721E-08
     -1.99575422378089E-16  -1.68942424453870E-08  -1.99575422378118E-16   1.69754408954444E-08   1.99575422377105E-16
      1.00000000000000E+09
     -1.98000000000000E+00   0.00000000000000E+00   1.72112214579135E-08   2.01074404053000E-16  -1.72116594361837E-08
     -2.01074404052918E-16  -1.72116594358793E-08  -2.01074404052925E-16   1.72687993143412E-08   2.01074404053141E-16
      1.00000000000000E+09
     -1.94266666666667E+00   0.00000000000000E+00   1.78552123112036E-08   2.04008828950248E-16  -1.78445834263752E-08
     -2.04008828949626E-16  -1.78445834244923E-08  -2.04008828949627E-16   1.79088402355281E-08   2.04008828949312E-16
      1.00000000000000E+09
     -1.87131851851852E+00   0.00000000000000E+00   1.92563747645877E-08   2.10173506938039E-16  -1.92240427462653E-08
     -2.10173506937161E-16  -1.92240427446542E-08  -2.10173506937154E-16   1.93305119517558E-08   2.10173506936536E-16
      1.00000000000000E+09
     -1.74130633744856E+00   0.00000000000000E+00   2.25275262279148E-08   2.23763162252381E-16  -2.24972953248135E-08
     -2.23763162252365E-16  -2.24972953295065E-08  -2.23763162252363E-16   2.26198938709440E-08   2.23763162252559E-16
      1.00000000000000E+09
     -1.54130633744856E+00   0.00000000000000E+00   3.06355214720988E-08   2.53172794809739E-16  -3.05422891231805E-08
     -2.53172794809837E-16  -3.05422891256494E-08  -2.53172794809818E-16   3.06569422577355E-08   2.53172794810143E-16
      1.00000000000000E+09
     -1.34130633744856E+00   0.00000000000000E+00   4.44166826597633E-08   2.97534450743109E-16  -4.42991648582483E-08
     -2.97534450742144E-16  -4.42991648595075E-08  -2.97534450742161E-16   4.44052886248502E-08   2.97534450741548E-16
      1.00000000000000E+09
     -1.14130633744856E+00   0.00000000000000E+00   6.84761748618650E-08   3.68381623941564E-16  -6.84525905424228E-08
     -3.68381623940517E-16  -6.84525905399754E-08  -3.68381623940549E-16   6.85257009336208E-08   3.68381623939920E-16
      1.00000000000000E+09
     -9.41306337448560E-01   0.00000000000000E+00   1.29406460201927E-07   4.95363246898418E-16  -1.29292740425894E-07
     -4.95363246897616E-16  -1.29292740431388E-07  -4.95363246897624E-16   1.29387014382342E-07   4.95363246896742E-16
      1.00000000000000E+09
     -7.41306337448560E-01   0.00000000000000E+00   1.91301896259364E-07   6.11539581688958E-16  -1.91196481613907E-07
     -6.11539581688100E-16  -1.91196481620841E-07  -6.11539581688076E-16   1.91323317045001E-07   6.11539581687629E-16
      1.00000000000000E+09
     -5.41306337448560E-01   0.00000000000000E+00   2.33485044235223E-07   6.97437344825921E-16  -2.33440598378692E-07
     -6.97437344824592E-16  -2.33440598370131E-07  -6.97437344824619E-16   2.33519834021824E-07   6.97437344823537E-16
      1.00000000000000E+09
     -3.41306337448560E-01   0.00000000000000E+00   2.73854869534773E-07   7.77144161493404E-16  -2.73754580913543E-07
     -7.77144161492236E-16  -2.73754580911801E-07  -7.77144161492291E-16   2.73826460407723E-07   7.77144161491578E-16
      1.00000000000000E+09
     -1.41306337448560E-01   0.00000000000000E+00   3.18427422592148E-07   8.59779561190242E-16  -3.18343870839635E-07
     -8.59779561189354E-16  -3.18343870857707E-07  -8.59779561189238E-16   3.18418611205149E-07   8.59779561188721E-16
      1.00000000000000E+09
      0.00000000000000E+00   0.00000000000000E+00   3.54957306205508E-07   9.23350376565661E-16  -3.54926030461322E-07
     -9.23350376563077E-16  -3.54926030460585E-07  -9.23350376563104E-16   3.55028404983366E-07   9.23350376560750E-16
}
