DF-ISE text

Info {
  version   = 1.0
  type      = xyplot
  datasets  = [
    "frequency"
    "v(l)" "v(r)" "a(l,l)" "c(l,l)" "a(l,r)"
    "c(l,r)" "a(r,l)" "c(r,l)" "a(r,r)" "c(r,r)" ]
  functions = [
    Frequency
    Voltage Voltage Admittance Capacitance Admittance
    Capacitance Admittance Capacitance Admittance Capacitance ]
}

Data {
      1.00000000000000E+09
     -2.00000000000000E+00   0.00000000000000E+00   2.98285199593181E-08   2.62268020945343E-16  -2.96883820574641E-08
     -2.62268020944185E-16  -2.96883820600749E-08  -2.62268020944120E-16   2.97565096586671E-08   2.62268020943341E-16
      1.00000000000000E+09
     -1.98000000000000E+00   0.00000000000000E+00   3.08431967484488E-08   2.66333402578497E-16  -3.07198115789871E-08
     -2.66333402578667E-16  -3.07198115823949E-08  -2.66333402578607E-16   3.08012666999685E-08   2.66333402579092E-16
      1.00000000000000E+09
     -1.94266666666667E+00   0.00000000000000E+00   3.30112537117193E-08   2.74465279546840E-16  -3.28178749053366E-08
     -2.74465279546016E-16  -3.28178749087609E-08  -2.74465279545994E-16   3.28939711123468E-08   2.74465279545504E-16
      1.00000000000000E+09
     -1.87131851851852E+00   0.00000000000000E+00   3.76768831279482E-08   2.92351321440155E-16  -3.76162373993476E-08
     -2.92351321438538E-16  -3.76162373891577E-08  -2.92351321438572E-16   3.77485895876681E-08   2.92351321437283E-16
      1.00000000000000E+09
     -1.74447736625514E+00   0.00000000000000E+00   5.02838510376982E-08   3.34032726439111E-16  -5.01735220030335E-08
     -3.34032726438978E-16  -5.01735220059403E-08  -3.34032726438995E-16   5.02633417748546E-08   3.34032726439144E-16
      1.00000000000000E+09
     -1.54447736625514E+00   0.00000000000000E+00   8.39828486967741E-08   4.21355065422372E-16  -8.38207525272979E-08
     -4.21355065421350E-16  -8.38207525344605E-08  -4.21355065421332E-16   8.39024827705202E-08   4.21355065420835E-16
      1.00000000000000E+09
     -1.34447736625514E+00   0.00000000000000E+00   1.18083068305258E-07   5.00569180372196E-16  -1.17924462477917E-07
     -5.00569180374278E-16  -1.17924462484436E-07  -5.00569180374236E-16   1.18034149915364E-07   5.00569180376523E-16
      1.00000000000000E+09
     -1.14447736625514E+00   0.00000000000000E+00   1.43150856636939E-07   5.61467620809444E-16  -1.43063976683371E-07
     -5.61467620810173E-16  -1.43063976683677E-07  -5.61467620810112E-16   1.43126093601061E-07   5.61467620811110E-16
      1.00000000000000E+09
     -9.44477366255144E-01   0.00000000000000E+00   1.64994285008669E-07   6.14830426842737E-16  -1.64862019160175E-07
     -6.14830426843315E-16  -1.64862019166958E-07  -6.14830426843269E-16   1.64970737336515E-07   6.14830426844234E-16
      1.00000000000000E+09
     -7.44477366255144E-01   0.00000000000000E+00   1.86305384069258E-07   6.66009146690598E-16  -1.86238413058773E-07
     -6.66009146685431E-16  -1.86238413059810E-07  -6.66009146685494E-16   1.86374507881065E-07   6.66009146680695E-16
      1.00000000000000E+09
     -5.44477366255144E-01   0.00000000000000E+00   2.08333547727047E-07   7.17070782673535E-16  -2.08195607412784E-07
     -7.17070782672481E-16  -2.08195607423687E-07  -7.17070782672382E-16   2.08273994904568E-07   7.17070782671675E-16
      1.00000000000000E+09
     -3.44477366255144E-01   0.00000000000000E+00   2.31677950298000E-07   7.69730013664815E-16  -2.31596431486544E-07
     -7.69730013664563E-16  -2.31596431489483E-07  -7.69730013664520E-16   2.31663821694708E-07   7.69730013664454E-16
      1.00000000000000E+09
     -1.44477366255144E-01   0.00000000000000E+00   2.57646930831077E-07   8.25984856134958E-16  -2.57542732849286E-07
     -8.25984856131004E-16  -2.57542732851076E-07  -8.25984856130954E-16   2.57607279589580E-07   8.25984856127280E-16
      1.00000000000000E+09
      0.00000000000000E+00   0.00000000000000E+00   2.79187429794584E-07   8.70888873045559E-16  -2.79119271893864E-07
     -8.70888873041938E-16  -2.79119271894741E-07  -8.70888873041923E-16   2.79212344750927E-07   8.70888873038596E-16
}
