DF-ISE text

Info {
  version   = 1.0
  type      = xyplot
  datasets  = [
    "frequency"
    "v(l)" "v(r)" "a(l,l)" "c(l,l)" "a(l,r)"
    "c(l,r)" "a(r,l)" "c(r,l)" "a(r,r)" "c(r,r)" ]
  functions = [
    Frequency
    Voltage Voltage Admittance Capacitance Admittance
    Capacitance Admittance Capacitance Admittance Capacitance ]
}

Data {
      1.00000000000000E+09
     -2.00000000000000E+00   0.00000000000000E+00   7.93649223067149E-08   4.23490480328859E-16  -7.92298293385973E-08
     -4.23490480328594E-16  -7.92298293420956E-08  -4.23490480328559E-16   7.93220807354415E-08   4.23490480328442E-16
      1.00000000000000E+09
     -1.98000000000000E+00   0.00000000000000E+00   8.11214267289232E-08   4.28384316865093E-16  -8.09776423210558E-08
     -4.28384316865853E-16  -8.09776423265597E-08  -4.28384316865826E-16   8.10916503176835E-08   4.28384316866707E-16
      1.00000000000000E+09
     -1.94177777777778E+00   0.00000000000000E+00   8.43198082892718E-08   4.37471003164291E-16  -8.42167317570748E-08
     -4.37471003165208E-16  -8.42167317583586E-08  -4.37471003165171E-16   8.42944375715319E-08   4.37471003166260E-16
      1.00000000000000E+09
     -1.86873086419753E+00   0.00000000000000E+00   9.01219547079690E-08   4.53974356596813E-16  -9.00748977371243E-08
     -4.53974356597170E-16  -9.00748977395914E-08  -4.53974356597209E-16   9.01895593151203E-08   4.53974356597797E-16
      1.00000000000000E+09
     -1.72913009602195E+00   0.00000000000000E+00   1.00438113918318E-07   4.83091492349173E-16  -1.00341453888648E-07
     -4.83091492347147E-16  -1.00341453886669E-07  -4.83091492347113E-16   1.00469713375143E-07   4.83091492345430E-16
      1.00000000000000E+09
     -1.67913009602195E+00   0.00000000000000E+00   1.03900533247720E-07   4.92952124570302E-16  -1.03806924012476E-07
     -4.92952124567116E-16  -1.03806924017964E-07  -4.92952124567078E-16   1.03892177622117E-07   4.92952124564036E-16
      1.00000000000000E+09
     -1.63135231824417E+00   0.00000000000000E+00   1.07090103421069E-07   5.02166810012858E-16  -1.07044508614320E-07
     -5.02166810015329E-16  -1.07044508619420E-07  -5.02166810015293E-16   1.07159075312410E-07   5.02166810017799E-16
      1.00000000000000E+09
     -1.60852515775034E+00   0.00000000000000E+00   1.08678279967494E-07   5.06507561957283E-16  -1.08570023802115E-07
     -5.06507561957221E-16  -1.08570023807689E-07  -5.06507561957130E-16   1.08686787513562E-07   5.06507561957238E-16
      1.00000000000000E+09
     -1.58569799725652E+00   0.00000000000000E+00   1.10252327910627E-07   5.10812548787263E-16  -1.10083514675554E-07
     -5.10812548787066E-16  -1.10083514678870E-07  -5.10812548787005E-16   1.10189432837906E-07   5.10812548787005E-16
      1.00000000000000E+09
     -1.54105821673525E+00   0.00000000000000E+00   1.13101596241237E-07   5.19138025324952E-16  -1.13012759506751E-07
     -5.19138025325289E-16  -1.13012759507656E-07  -5.19138025325307E-16   1.13119826697098E-07   5.19138025325708E-16
      1.00000000000000E+09
     -1.45574663618351E+00   0.00000000000000E+00   1.18644110584380E-07   5.34761447036165E-16  -1.18521892987165E-07
     -5.34761447033523E-16  -1.18521892984218E-07  -5.34761447033507E-16   1.18625576287588E-07   5.34761447031176E-16
      1.00000000000000E+09
     -1.30408160409152E+00   0.00000000000000E+00   1.28256878039425E-07   5.61878164899721E-16  -1.28141154657461E-07
     -5.61878164900224E-16  -1.28141154656305E-07  -5.61878164900214E-16   1.28297136962785E-07   5.61878164900734E-16
      1.00000000000000E+09
     -1.10408160409152E+00   0.00000000000000E+00   1.40725446405097E-07   5.96839149886571E-16  -1.40666635933326E-07
     -5.96839149887356E-16  -1.40666635931055E-07  -5.96839149887385E-16   1.40795177898765E-07   5.96839149888211E-16
      1.00000000000000E+09
     -9.04081604091517E-01   0.00000000000000E+00   1.53175936235373E-07   6.31353471688899E-16  -1.53152600111699E-07
     -6.31353471686172E-16  -1.53152600105345E-07  -6.31353471686224E-16   1.53270126923989E-07   6.31353471683624E-16
      1.00000000000000E+09
     -7.04081604091517E-01   0.00000000000000E+00   1.65938774542735E-07   6.66132018821712E-16  -1.65884126613250E-07
     -6.66132018820532E-16  -1.65884126608357E-07  -6.66132018820537E-16   1.65983743000525E-07   6.66132018819288E-16
      1.00000000000000E+09
     -5.04081604091517E-01   0.00000000000000E+00   1.79481268679086E-07   7.02336698874385E-16  -1.79405921762430E-07
     -7.02336698872831E-16  -1.79405921750350E-07  -7.02336698872881E-16   1.79475495701397E-07   7.02336698871518E-16
      1.00000000000000E+09
     -3.04081604091518E-01   0.00000000000000E+00   1.94942822135739E-07   7.42193283039067E-16  -1.94872641640461E-07
     -7.42193283038797E-16  -1.94872641638152E-07  -7.42193283038836E-16   1.94970167819530E-07   7.42193283038623E-16
      1.00000000000000E+09
     -1.04081604091518E-01   0.00000000000000E+00   2.15140648025082E-07   7.90621856532727E-16  -2.15100327621524E-07
     -7.90621856530678E-16  -2.15100327635092E-07  -7.90621856530582E-16   2.15169664833994E-07   7.90621856528621E-16
      1.00000000000000E+09
      0.00000000000000E+00   0.00000000000000E+00   2.30433417844556E-07   8.23766910361300E-16  -2.30354345752228E-07
     -8.23766910359688E-16  -2.30354345753686E-07  -8.23766910359611E-16   2.30457117437175E-07   8.23766910357999E-16
}
